{
  "data_quality": {
    "caveats": [
      "Shelf life may vary based on specific product formulations and storage conditions."
    ],
    "confidence": 0.9
  },
  "ingredient": {
    "botanical_name": "",
    "cas_number": "7235-40-7",
    "category": "Colorants & Pigments",
    "common_name": "Beta-Carotene",
    "detailed_description": "Beta-Carotene is a red-orange pigment found in plants and fruits, especially carrots and colorful vegetables. It is a member of the carotenoids, which are known for their antioxidant properties and ability to be converted into vitamin A in the body. In artisanal manufacturing, it is used for its colorant and antioxidant properties across a range of applications.",
    "documentation": {
      "last_verified": "2023-12-01",
      "references": [
        {
          "notes": "Confirms regulatory status and applications in food and cosmetics.",
          "title": "FDA Color Additive Status for Beta-Carotene",
          "url": "https://www.fda.gov/forindustry/coloradditives/coloradditiveinventories/ucm106626.htm"
        }
      ]
    },
    "inci_name": "Beta-Carotene",
    "items": [
      {
        "applications": [
          "Cold Process Soap",
          "Hot Process Soap",
          "Melt & Pour Soap",
          "Lotion",
          "Cream",
          "Balm",
          "Serum",
          "Scrub",
          "Lip Balm",
          "Chocolate",
          "Confection",
          "Baked Good",
          "Beverage"
        ],
        "form_bypass": false,
        "function_tags": [
          "Colorant",
          "Antioxidant"
        ],
        "item_name": "Beta-Carotene Powder",
        "physical_form": "Powder",
        "safety_tags": [],
        "sds_hazards": [],
        "shelf_life_days": 730,
        "sourcing": {
          "certifications": [
            "Organic",
            "Non-GMO"
          ],
          "common_origins": [
            "USA",
            "China"
          ],
          "supply_risks": [
            "Dependent on agricultural conditions"
          ],
          "sustainability_notes": "Sustainable when sourced from organic farming practices"
        },
        "specifications": {
          "flash_point_celsius": 0,
          "iodine_value": 0,
          "melting_point_celsius": {
            "max": 0,
            "min": 0
          },
          "ph_range": {
            "max": 0,
            "min": 0
          },
          "sap_koh": 0,
          "sap_naoh": 0,
          "usage_rate_percent": {
            "leave_on_max": 10,
            "rinse_off_max": 20
          }
        },
        "storage": {
          "humidity_percent": {
            "max": 60
          },
          "special_instructions": "Store in a cool, dry place away from light",
          "temperature_celsius": {
            "max": 25,
            "min": 5
          }
        },
        "synonyms": []
      },
      {
        "applications": [
          "Lotion",
          "Cream",
          "Balm",
          "Serum",
          "Scrub",
          "Lip Balm"
        ],
        "form_bypass": false,
        "function_tags": [
          "Colorant",
          "Antioxidant"
        ],
        "item_name": "Beta-Carotene Oil",
        "physical_form": "Oil",
        "safety_tags": [],
        "sds_hazards": [],
        "shelf_life_days": 365,
        "sourcing": {
          "certifications": [
            "Organic",
            "Non-GMO"
          ],
          "common_origins": [
            "USA",
            "China"
          ],
          "supply_risks": [
            "Dependent on agricultural conditions"
          ],
          "sustainability_notes": "Sustainable when sourced from organic farming practices"
        },
        "specifications": {
          "flash_point_celsius": 0,
          "iodine_value": 0,
          "melting_point_celsius": {
            "max": 0,
            "min": 0
          },
          "ph_range": {
            "max": 0,
            "min": 0
          },
          "sap_koh": 0,
          "sap_naoh": 0,
          "usage_rate_percent": {
            "leave_on_max": 5,
            "rinse_off_max": 10
          }
        },
        "storage": {
          "humidity_percent": {
            "max": 60
          },
          "special_instructions": "Store in a cool, dry place away from light",
          "temperature_celsius": {
            "max": 25,
            "min": 5
          }
        },
        "synonyms": []
      }
    ],
    "origin": {
      "processing_methods": [
        "Cold Pressed",
        "Solvent Extracted"
      ],
      "regions": [
        "Worldwide"
      ],
      "source_material": "Carrots, sweet potatoes, pumpkins, and other colorful fruits and vegetables"
    },
    "primary_functions": [
      "Antioxidant",
      "Colorant"
    ],
    "regulatory_notes": [
      "Generally recognized as safe (GRAS) for food use",
      "Approved for cosmetic use"
    ],
    "short_description": "Natural pigment and antioxidant",
    "taxonomy": {
      "color_profile": [
        "Orange",
        "Red"
      ],
      "compatible_processes": [
        "Cold Process Soap",
        "Hot Process Soap",
        "Melt & Pour Soap",
        "Emulsion",
        "Anhydrous Balm"
      ],
      "incompatible_processes": [],
      "scent_profile": [],
      "texture_profile": [
        "Powdery",
        "Oily"
      ]
    }
  }
}