{
  "data_quality": {
    "caveats": [
      "Supply risks and sustainability notes are based on current environmental concerns and may change."
    ],
    "confidence": 0.9
  },
  "ingredient": {
    "botanical_name": "Euphorbia cerifera",
    "cas_number": "8006-44-8",
    "category": "Waxes",
    "common_name": "Candelilla Wax",
    "detailed_description": "Candelilla Wax is a natural vegetable wax extracted from the small Candelilla shrub native to northern Mexico and the southwestern United States. It is obtained by boiling the dried stalks of the Candelilla plant, allowing for the separation of the wax. It is known for its high melting point and glossy finish, making it a popular choice in cosmetic formulations, food-grade products, and as a binding agent in various industrial applications.",
    "documentation": {
      "last_verified": "2023-12-01",
      "references": [
        {
          "notes": "Confirms GRAS status for food use",
          "title": "FDA GRAS Notice for Candelilla Wax",
          "url": "https://www.fda.gov"
        }
      ]
    },
    "inci_name": "Candelilla Cera",
    "items": [
      {
        "applications": [
          "Lip Balm",
          "Candle",
          "Chocolate",
          "Confection",
          "Lotion",
          "Cream",
          "Balm"
        ],
        "form_bypass": false,
        "function_tags": [
          "Hardener",
          "Stabilizer",
          "Glossing Agent"
        ],
        "item_name": "Candelilla Wax (Refined)",
        "physical_form": "Pellets",
        "safety_tags": [],
        "sds_hazards": [],
        "shelf_life_days": 1095,
        "sourcing": {
          "certifications": [
            "Organic",
            "Wildcrafted"
          ],
          "common_origins": [
            "Mexico"
          ],
          "supply_risks": [
            "Seasonal variation",
            "Environmental concerns over harvesting practices"
          ],
          "sustainability_notes": "Considered a sustainable wax as it is plant-derived and does not require the destruction of the plant to harvest."
        },
        "specifications": {
          "flash_point_celsius": 240,
          "iodine_value": 43,
          "melting_point_celsius": {
            "max": 72.5,
            "min": 68.5
          },
          "ph_range": {
            "max": 7,
            "min": 6
          },
          "sap_koh": 0.069,
          "sap_naoh": 0.039,
          "usage_rate_percent": {
            "leave_on_max": 10,
            "rinse_off_max": 100
          }
        },
        "storage": {
          "humidity_percent": {
            "max": 50
          },
          "special_instructions": "Store in a cool, dry place away from direct sunlight.",
          "temperature_celsius": {
            "max": 30,
            "min": 15
          }
        },
        "synonyms": [
          "Euphorbia cerifera wax"
        ]
      }
    ],
    "origin": {
      "processing_methods": [
        "Boiled",
        "Refined"
      ],
      "regions": [
        "Mexico",
        "United States"
      ],
      "source_material": "Candelilla shrub"
    },
    "primary_functions": [
      "Hardener",
      "Stabilizer",
      "Glossing Agent"
    ],
    "regulatory_notes": [
      "Generally recognized as safe (GRAS) for food use",
      "Approved for use in cosmetics"
    ],
    "short_description": "A hard, brittle, vegetable wax extracted from the leaves of the Candelilla shrub.",
    "taxonomy": {
      "color_profile": [
        "Yellow",
        "Brown"
      ],
      "compatible_processes": [
        "Melt & Pour Soap",
        "Lip Balm Formulation",
        "Candle Making",
        "Chocolate Coating"
      ],
      "incompatible_processes": [
        "Water-based formulations without emulsifiers"
      ],
      "scent_profile": [
        "Neutral"
      ],
      "texture_profile": [
        "Hard",
        "Brittle"
      ]
    }
  }
}