{
  "data_quality": {
    "caveats": [],
    "confidence": 1
  },
  "ingredient": {
    "botanical_name": "Saccharum officinarum",
    "cas_number": "57-50-1",
    "category": "Sugars & Syrups",
    "common_name": "Cane Sugar",
    "detailed_description": "Cane sugar is a natural sweetener derived from the sugar cane plant, Saccharum officinarum. It undergoes various degrees of processing to produce different forms of sugar, including raw, refined, and granulated, each with unique characteristics suitable for various artisanal applications. It serves as a sweetener, preservative, and texture modifier in a wide range of products.",
    "documentation": {
      "last_verified": "2023-12-01",
      "references": [
        {
          "notes": "Confirms sucrose as Generally Recognized As Safe (GRAS) for food use.",
          "title": "FDA GRAS Notice for Sucrose",
          "url": "https://www.fda.gov/food/generally-recognized-safe-gras/gras-notice-inventory"
        }
      ]
    },
    "inci_name": "Sucrose",
    "items": [
      {
        "applications": [
          "Confection",
          "Baked Good",
          "Beverage",
          "Fermented Beverage",
          "Chocolate"
        ],
        "form_bypass": false,
        "function_tags": [
          "Sweetener",
          "Preservative",
          "Texture Modifier"
        ],
        "item_name": "Cane Sugar (Granulated)",
        "physical_form": "Granules",
        "safety_tags": [],
        "sds_hazards": [],
        "shelf_life_days": 730,
        "sourcing": {
          "certifications": [
            "Organic",
            "Fair Trade"
          ],
          "common_origins": [
            "Brazil",
            "India",
            "China"
          ],
          "supply_risks": [
            "Seasonal Harvest",
            "Climate Change Impact"
          ],
          "sustainability_notes": "Sustainable farming practices encouraged"
        },
        "specifications": {
          "flash_point_celsius": 410,
          "iodine_value": 0,
          "melting_point_celsius": {
            "max": 186,
            "min": 185
          },
          "ph_range": {
            "max": 7,
            "min": 6
          },
          "sap_koh": 0,
          "sap_naoh": 0,
          "usage_rate_percent": {
            "leave_on_max": 100,
            "rinse_off_max": 100
          }
        },
        "storage": {
          "humidity_percent": {
            "max": 60
          },
          "special_instructions": "Store in a cool, dry place",
          "temperature_celsius": {
            "max": 30,
            "min": 0
          }
        },
        "synonyms": [
          "Table sugar",
          "White sugar"
        ]
      },
      {
        "applications": [
          "Confection",
          "Baked Good",
          "Chocolate",
          "Beverage"
        ],
        "form_bypass": false,
        "function_tags": [
          "Sweetener",
          "Texture Modifier"
        ],
        "item_name": "Cane Sugar (Powdered)",
        "physical_form": "Powder",
        "safety_tags": [],
        "sds_hazards": [],
        "shelf_life_days": 730,
        "sourcing": {
          "certifications": [
            "Organic",
            "Fair Trade"
          ],
          "common_origins": [
            "Brazil",
            "India",
            "Thailand"
          ],
          "supply_risks": [
            "Seasonal Harvest",
            "Climate Change Impact"
          ],
          "sustainability_notes": "Sustainable farming practices encouraged"
        },
        "specifications": {
          "flash_point_celsius": 410,
          "iodine_value": 0,
          "melting_point_celsius": {
            "max": 186,
            "min": 185
          },
          "ph_range": {
            "max": 7,
            "min": 6
          },
          "sap_koh": 0,
          "sap_naoh": 0,
          "usage_rate_percent": {
            "leave_on_max": 100,
            "rinse_off_max": 100
          }
        },
        "storage": {
          "humidity_percent": {
            "max": 60
          },
          "special_instructions": "Store in a cool, dry place",
          "temperature_celsius": {
            "max": 30,
            "min": 0
          }
        },
        "synonyms": [
          "Confectioners' sugar",
          "Icing sugar"
        ]
      },
      {
        "applications": [
          "Confection",
          "Baked Good",
          "Beverage",
          "Chocolate"
        ],
        "form_bypass": false,
        "function_tags": [
          "Sweetener",
          "Texture Modifier"
        ],
        "item_name": "Cane Sugar (Raw)",
        "physical_form": "Crystals",
        "safety_tags": [],
        "sds_hazards": [],
        "shelf_life_days": 730,
        "sourcing": {
          "certifications": [
            "Organic",
            "Fair Trade"
          ],
          "common_origins": [
            "Brazil",
            "India",
            "Australia"
          ],
          "supply_risks": [
            "Seasonal Harvest",
            "Climate Change Impact"
          ],
          "sustainability_notes": "Sustainable farming practices encouraged"
        },
        "specifications": {
          "flash_point_celsius": 410,
          "iodine_value": 0,
          "melting_point_celsius": {
            "max": 186,
            "min": 185
          },
          "ph_range": {
            "max": 7,
            "min": 6
          },
          "sap_koh": 0,
          "sap_naoh": 0,
          "usage_rate_percent": {
            "leave_on_max": 100,
            "rinse_off_max": 100
          }
        },
        "storage": {
          "humidity_percent": {
            "max": 60
          },
          "special_instructions": "Store in a cool, dry place",
          "temperature_celsius": {
            "max": 30,
            "min": 0
          }
        },
        "synonyms": [
          "Turbinado sugar",
          "Raw sugar"
        ]
      }
    ],
    "origin": {
      "processing_methods": [
        "Crystallized",
        "Refined"
      ],
      "regions": [
        "South Asia",
        "Southeast Asia",
        "Latin America",
        "Caribbean"
      ],
      "source_material": "Sugar cane (Saccharum officinarum)"
    },
    "primary_functions": [
      "Sweetener",
      "Preservative",
      "Texture Modifier"
    ],
    "regulatory_notes": [
      "Food grade",
      "Generally Recognized As Safe (GRAS) by the FDA"
    ],
    "short_description": "A sweet, crystalline substance obtained from the juice of the sugar cane.",
    "taxonomy": {
      "color_profile": [
        "White",
        "Off-white"
      ],
      "compatible_processes": [
        "Cold Process Soap",
        "Hot Process Soap",
        "Sugar Confectionery",
        "Small Batch Brewing",
        "Baking"
      ],
      "incompatible_processes": [],
      "scent_profile": [],
      "texture_profile": [
        "Crystalline",
        "Powdery"
      ]
    }
  }
}