{
  "data_quality": {
    "caveats": [
      "SAP values, iodine value, and pH range for cedarwood essential oil are not commonly specified due to its primary use as a fragrance."
    ],
    "confidence": 0.9
  },
  "ingredient": {
    "botanical_name": "Cedrus atlantica",
    "cas_number": "92201-55-3",
    "category": "Essential Oils",
    "common_name": "Cedarwood",
    "detailed_description": "Cedarwood essential oil is obtained through the process of steam distillation of the wood pieces of the cedar tree. It is known for its rich, woody aroma and is used in various artisanal formulations for its fragrance and preservative properties.",
    "documentation": {
      "last_verified": "2023-12-01",
      "references": [
        {
          "notes": "Details safe use percentages for fragrances including cedarwood oil.",
          "title": "IFRA Standards",
          "url": "https://ifrafragrance.org/safe-use/standards-library"
        }
      ]
    },
    "inci_name": "Cedrus Atlantica Bark Oil",
    "items": [
      {
        "applications": [
          "Cold Process Soap",
          "Hot Process Soap",
          "Melt & Pour Soap",
          "Lotion",
          "Cream",
          "Balm",
          "Serum",
          "Scrub",
          "Perfume",
          "Candle",
          "Wax Melt",
          "Lip Balm",
          "Haircare",
          "Skincare",
          "Deodorant"
        ],
        "form_bypass": false,
        "function_tags": [
          "Fragrance",
          "Preservative"
        ],
        "item_name": "Cedarwood Essential Oil",
        "physical_form": "Oil",
        "safety_tags": [
          "Dermal Limit 5%"
        ],
        "sds_hazards": [
          "Flammable"
        ],
        "shelf_life_days": 1095,
        "sourcing": {
          "certifications": [
            "Organic",
            "Wildcrafted"
          ],
          "common_origins": [
            "United States",
            "Morocco"
          ],
          "supply_risks": [
            "Overharvesting"
          ],
          "sustainability_notes": "Sustainable sourcing is crucial to prevent deforestation and support ecosystem health."
        },
        "specifications": {
          "flash_point_celsius": 80,
          "iodine_value": "unknown",
          "melting_point_celsius": {
            "max": "unknown",
            "min": "unknown"
          },
          "ph_range": {
            "max": "unknown",
            "min": "unknown"
          },
          "sap_koh": "unknown",
          "sap_naoh": "unknown",
          "usage_rate_percent": {
            "leave_on_max": 5,
            "rinse_off_max": "unknown"
          }
        },
        "storage": {
          "humidity_percent": {
            "max": 60
          },
          "special_instructions": "Store in a cool, dark place",
          "temperature_celsius": {
            "max": 25,
            "min": 5
          }
        },
        "synonyms": [
          "Cedar Oil",
          "Cedrus Atlantica Oil"
        ]
      }
    ],
    "origin": {
      "processing_methods": [
        "Steam Distillation"
      ],
      "regions": [
        "North America",
        "Morocco"
      ],
      "source_material": "Wood"
    },
    "primary_functions": [
      "Fragrance",
      "Preservative"
    ],
    "regulatory_notes": [
      "IFRA safe"
    ],
    "short_description": "Cedarwood essential oil is derived from the bark of the cedar tree.",
    "taxonomy": {
      "color_profile": [
        "Yellow",
        "Amber"
      ],
      "compatible_processes": [
        "Cold Process Soap",
        "Hot Process Soap",
        "Melt & Pour Soap",
        "Lotion Making",
        "Perfumery",
        "Candle Making"
      ],
      "incompatible_processes": [],
      "scent_profile": [
        "Woody"
      ],
      "texture_profile": [
        "Liquid"
      ]
    }
  }
}