{
  "data_quality": {
    "caveats": [
      "SAP values and exact pH range for Clary Sage essential oil are not widely documented."
    ],
    "confidence": 0.9
  },
  "ingredient": {
    "botanical_name": "Salvia sclarea",
    "cas_number": "8016-63-5",
    "category": "Essential Oils",
    "common_name": "Clary Sage",
    "detailed_description": "Clary Sage, derived from the Salvia sclarea plant, is celebrated for its soothing, calming, and balancing properties. It is widely used in aromatherapy, skincare, and herbal practices. The essential oil is extracted primarily through steam distillation of the flowers and leaves, offering a sweet, nutty, and herbaceous scent.",
    "documentation": {
      "last_verified": "2023-12-01",
      "references": [
        {
          "notes": "Provides comprehensive safety guidelines for the use of essential oils, including Clary Sage.",
          "title": "Essential Oil Safety: A Guide for Health Care Professionals",
          "url": "https://example.com"
        }
      ]
    },
    "inci_name": "Salvia sclarea (Clary) Oil",
    "items": [
      {
        "applications": [
          "Perfume",
          "Candle",
          "Wax Melt",
          "Lotion",
          "Cream",
          "Balm",
          "Serum",
          "Scrub",
          "Aromatherapy"
        ],
        "form_bypass": false,
        "function_tags": [
          "Fragrance",
          "Antioxidant"
        ],
        "item_name": "Clary Sage Essential Oil",
        "physical_form": "Oil",
        "safety_tags": [
          "Avoid during pregnancy",
          "Dermal Limit 0.25%"
        ],
        "sds_hazards": [
          "Flammable"
        ],
        "shelf_life_days": 1095,
        "sourcing": {
          "certifications": [
            "Organic",
            "Fair Trade"
          ],
          "common_origins": [
            "France",
            "Russia"
          ],
          "supply_risks": [
            "Seasonal Harvest"
          ],
          "sustainability_notes": "Sustainable cultivation practices are encouraged to ensure the longevity of the plant species."
        },
        "specifications": {
          "flash_point_celsius": 75,
          "iodine_value": "unknown",
          "melting_point_celsius": {
            "max": "unknown",
            "min": "unknown"
          },
          "ph_range": {
            "max": "unknown",
            "min": "unknown"
          },
          "sap_koh": "unknown",
          "sap_naoh": "unknown",
          "usage_rate_percent": {
            "leave_on_max": 0.25,
            "rinse_off_max": "unknown"
          }
        },
        "storage": {
          "humidity_percent": {
            "max": 60
          },
          "special_instructions": "Store in a cool, dark place",
          "temperature_celsius": {
            "max": 25,
            "min": 5
          }
        },
        "synonyms": [
          "Salvia sclarea oil"
        ]
      }
    ],
    "origin": {
      "processing_methods": [
        "Steam Distilled"
      ],
      "regions": [
        "Europe",
        "Central Asia"
      ],
      "source_material": "Flowers and leaves"
    },
    "primary_functions": [
      "Fragrance",
      "Antioxidant"
    ],
    "regulatory_notes": [
      "IFRA safe",
      "Food grade"
    ],
    "short_description": "Clary Sage is a herbaceous plant known for its aromatic properties.",
    "taxonomy": {
      "color_profile": [
        "Pale Yellow",
        "Clear"
      ],
      "compatible_processes": [
        "Cold Process Soap",
        "Hot Process Soap",
        "Melt & Pour Soap",
        "Lotion",
        "Cream",
        "Balm",
        "Serum",
        "Scrub",
        "Perfume",
        "Candle",
        "Wax Melt",
        "Aromatherapy"
      ],
      "incompatible_processes": [],
      "scent_profile": [
        "Sweet",
        "Nutty",
        "Herbaceous"
      ],
      "texture_profile": [
        "Liquid"
      ]
    }
  }
}