{
  "data_quality": {
    "caveats": [
      "SAP values, iodine value, melting point, and pH range are not widely documented for Copaiba Balsam Essential Oil."
    ],
    "confidence": 0.9
  },
  "ingredient": {
    "botanical_name": "Copaifera officinalis",
    "cas_number": "8013-97-6",
    "category": "Resins (Natural)",
    "common_name": "Copaiba Balsam",
    "detailed_description": "Copaiba Balsam is a viscous liquid harvested from the trunk of Copaifera species trees found in South America. It is known for its rich, soothing aroma and is used in various applications due to its anti-inflammatory and antimicrobial properties.",
    "documentation": {
      "last_verified": "2023-12-01",
      "references": [
        {
          "notes": "Provides detailed safety information on essential oils, including Copaiba Balsam.",
          "title": "Essential Oil Safety: A Guide for Health Care Professionals",
          "url": "https://example.com"
        }
      ]
    },
    "inci_name": "Copaifera Officinalis (Balsam Copaiba) Resin",
    "items": [
      {
        "applications": [
          "Perfume",
          "Candle",
          "Wax Melt",
          "Lotion",
          "Cream",
          "Balm",
          "Serum",
          "Skincare"
        ],
        "form_bypass": false,
        "function_tags": [
          "Fragrance",
          "Emollient"
        ],
        "item_name": "Copaiba Balsam Essential Oil",
        "physical_form": "Oil",
        "safety_tags": [
          "Dermal Limit 3%"
        ],
        "sds_hazards": [
          "Allergen"
        ],
        "shelf_life_days": 1095,
        "sourcing": {
          "certifications": [
            "Wildcrafted",
            "Sustainable Harvest"
          ],
          "common_origins": [
            "Brazil",
            "Colombia"
          ],
          "supply_risks": [
            "Deforestation"
          ],
          "sustainability_notes": "Harvested from wild trees with minimal impact to the ecosystem"
        },
        "specifications": {
          "flash_point_celsius": 100,
          "iodine_value": "unknown",
          "melting_point_celsius": {
            "max": "unknown",
            "min": "unknown"
          },
          "ph_range": {
            "max": "unknown",
            "min": "unknown"
          },
          "sap_koh": "unknown",
          "sap_naoh": "unknown",
          "usage_rate_percent": {
            "leave_on_max": 5,
            "rinse_off_max": "unknown"
          }
        },
        "storage": {
          "humidity_percent": {
            "max": 60
          },
          "special_instructions": "Keep in a cool, dark place",
          "temperature_celsius": {
            "max": 25,
            "min": 15
          }
        },
        "synonyms": [
          "Copaiba Oil"
        ]
      }
    ],
    "origin": {
      "processing_methods": [
        "Steam Distilled"
      ],
      "regions": [
        "South America"
      ],
      "source_material": "Copaiba tree resin"
    },
    "primary_functions": [
      "Fragrance",
      "Emollient"
    ],
    "regulatory_notes": [
      "IFRA safe",
      "Food grade"
    ],
    "short_description": "A natural resin extracted from the Copaiba tree.",
    "taxonomy": {
      "color_profile": [
        "Yellow",
        "Amber"
      ],
      "compatible_processes": [
        "Cold Process Soap",
        "Hot Process Soap",
        "Lotion Making",
        "Candle Making",
        "Perfumery"
      ],
      "incompatible_processes": [],
      "scent_profile": [
        "Woody",
        "Earthy"
      ],
      "texture_profile": [
        "Viscous",
        "Liquid"
      ]
    }
  }
}