{
  "data_quality": {
    "caveats": [
      "SAP values and flash point for corn starch are not typically relevant or available due to its nature and applications."
    ],
    "confidence": 0.9
  },
  "ingredient": {
    "botanical_name": "Zea mays",
    "cas_number": "9005-25-8",
    "category": "Starches & Thickeners",
    "common_name": "Corn Starch",
    "detailed_description": "Corn starch is extracted from the endosperm of corn kernels. It is a versatile ingredient widely used in cooking and baking to thicken sauces, gravies, and soups, and in the manufacturing of biodegradable plastics, adhesives, and textiles. In artisanal crafting, it finds applications in cosmetics, soaps, and confections for its thickening and absorbent properties.",
    "documentation": {
      "last_verified": "2023-12-01",
      "references": [
        {
          "notes": "Confirms the status of corn starch as Generally Recognized As Safe (GRAS).",
          "title": "FDA GRAS Notice for Corn Starch",
          "url": "https://www.fda.gov"
        }
      ]
    },
    "inci_name": "Zea Mays (Corn) Starch",
    "items": [
      {
        "applications": [
          "Cold Process Soap",
          "Hot Process Soap",
          "Lotion",
          "Cream",
          "Balm",
          "Serum",
          "Scrub",
          "Chocolate",
          "Confection",
          "Baked Good",
          "Beverage",
          "Bath Bomb",
          "Shower Steamer",
          "Skincare",
          "Deodorant"
        ],
        "form_bypass": false,
        "function_tags": [
          "Thickener",
          "Binder",
          "Absorbent"
        ],
        "item_name": "Corn Starch (Powder)",
        "physical_form": "Powder",
        "safety_tags": [
          "Non-toxic"
        ],
        "sds_hazards": [
          "Dust inhalation"
        ],
        "shelf_life_days": 730,
        "sourcing": {
          "certifications": [
            "Non-GMO",
            "Organic"
          ],
          "common_origins": [
            "United States",
            "China"
          ],
          "supply_risks": [
            "Dependent on agricultural conditions"
          ],
          "sustainability_notes": "Renewable resource but requires significant water for cultivation"
        },
        "specifications": {
          "flash_point_celsius": "unknown",
          "iodine_value": "unknown",
          "melting_point_celsius": {
            "max": 270,
            "min": 240
          },
          "ph_range": {
            "max": 7,
            "min": 4
          },
          "sap_koh": "unknown",
          "sap_naoh": "unknown",
          "usage_rate_percent": {
            "leave_on_max": 10,
            "rinse_off_max": 20
          }
        },
        "storage": {
          "humidity_percent": {
            "max": 70
          },
          "special_instructions": "Store in a cool, dry place",
          "temperature_celsius": {
            "max": 40,
            "min": 0
          }
        },
        "synonyms": [
          "Cornflour"
        ]
      }
    ],
    "origin": {
      "processing_methods": [
        "Wet Milling"
      ],
      "regions": [
        "North America",
        "Asia"
      ],
      "source_material": "Corn"
    },
    "primary_functions": [
      "Thickener",
      "Binder",
      "Absorbent"
    ],
    "regulatory_notes": [
      "Food grade",
      "Generally recognized as safe (GRAS) by the FDA"
    ],
    "short_description": "Corn starch is a fine, white powder derived from the endosperm of corn kernels, used as a thickening agent.",
    "taxonomy": {
      "color_profile": [
        "White"
      ],
      "compatible_processes": [
        "Cold Process Soap",
        "Hot Process",
        "Lotion Making",
        "Baking",
        "Confectionery",
        "Cosmetic Formulation"
      ],
      "incompatible_processes": [],
      "scent_profile": [],
      "texture_profile": [
        "Fine",
        "Powdery"
      ]
    }
  }
}