{
  "data_quality": {
    "caveats": [
      "Limited clinical studies on efficacy and safety"
    ],
    "confidence": 0.9
  },
  "ingredient": {
    "botanical_name": "Turnera diffusa",
    "cas_number": "91722-21-3",
    "category": "Herbs & Spices (Dried Botanicals)",
    "common_name": "Damiana",
    "detailed_description": "Damiana is a small shrub with aromatic leaves that are used both for their flavor and traditional medicinal properties. It is native to the southern United States, Central America, and South America. Historically, it has been used as an aphrodisiac and a tonic to improve general well-being. In artisanal crafting, it is valued for its unique scent and potential health benefits.",
    "documentation": {
      "last_verified": "2023-12-01",
      "references": [
        {
          "notes": "Overview of traditional uses and properties",
          "title": "Damiana: A Traditional Herb with Aphrodisiac Properties",
          "url": "https://example.com/damiana-info"
        }
      ]
    },
    "inci_name": "Turnera Diffusa Leaf Extract",
    "items": [
      {
        "applications": [
          "Herbal Tincture",
          "Tea",
          "Infusion"
        ],
        "form_bypass": false,
        "function_tags": [
          "Flavor"
        ],
        "item_name": "Damiana Leaf (Whole)",
        "physical_form": "Whole",
        "safety_tags": [],
        "sds_hazards": [],
        "shelf_life_days": 730,
        "sourcing": {
          "certifications": [
            "Organic"
          ],
          "common_origins": [
            "Mexico",
            "Central America"
          ],
          "supply_risks": [
            "Seasonal Harvest"
          ],
          "sustainability_notes": "Sustainable harvesting practices are important to prevent overharvesting."
        },
        "specifications": {
          "flash_point_celsius": 0,
          "iodine_value": 0,
          "melting_point_celsius": {
            "max": 0,
            "min": 0
          },
          "ph_range": {
            "max": 0,
            "min": 0
          },
          "sap_koh": 0,
          "sap_naoh": 0,
          "usage_rate_percent": {
            "leave_on_max": 0,
            "rinse_off_max": 0
          }
        },
        "storage": {
          "humidity_percent": {
            "max": 60
          },
          "special_instructions": "Store in a cool, dry place away from direct sunlight.",
          "temperature_celsius": {
            "max": 30,
            "min": 10
          }
        },
        "synonyms": [
          "Damiana Leaves"
        ]
      },
      {
        "applications": [
          "Capsules",
          "Herbal Blends",
          "Tea"
        ],
        "form_bypass": false,
        "function_tags": [
          "Flavor"
        ],
        "item_name": "Damiana Leaf Powder",
        "physical_form": "Powder",
        "safety_tags": [],
        "sds_hazards": [],
        "shelf_life_days": 730,
        "sourcing": {
          "certifications": [
            "Organic"
          ],
          "common_origins": [
            "Mexico",
            "Central America"
          ],
          "supply_risks": [
            "Seasonal Harvest"
          ],
          "sustainability_notes": "Sustainable harvesting practices are important to prevent overharvesting."
        },
        "specifications": {
          "flash_point_celsius": 0,
          "iodine_value": 0,
          "melting_point_celsius": {
            "max": 0,
            "min": 0
          },
          "ph_range": {
            "max": 0,
            "min": 0
          },
          "sap_koh": 0,
          "sap_naoh": 0,
          "usage_rate_percent": {
            "leave_on_max": 0,
            "rinse_off_max": 0
          }
        },
        "storage": {
          "humidity_percent": {
            "max": 60
          },
          "special_instructions": "Store in a cool, dry place away from direct sunlight.",
          "temperature_celsius": {
            "max": 30,
            "min": 10
          }
        },
        "synonyms": [
          "Damiana Powder"
        ]
      },
      {
        "applications": [
          "Tincture",
          "Cosmetic Formulations",
          "Beverages"
        ],
        "form_bypass": false,
        "function_tags": [
          "Flavor",
          "Fragrance"
        ],
        "item_name": "Damiana Extract",
        "physical_form": "Liquid",
        "safety_tags": [],
        "sds_hazards": [],
        "shelf_life_days": 1825,
        "sourcing": {
          "certifications": [
            "Organic"
          ],
          "common_origins": [
            "Mexico",
            "Central America"
          ],
          "supply_risks": [
            "Seasonal Harvest"
          ],
          "sustainability_notes": "Sustainable harvesting practices are important to prevent overharvesting."
        },
        "specifications": {
          "flash_point_celsius": 0,
          "iodine_value": 0,
          "melting_point_celsius": {
            "max": 0,
            "min": 0
          },
          "ph_range": {
            "max": 0,
            "min": 0
          },
          "sap_koh": 0,
          "sap_naoh": 0,
          "usage_rate_percent": {
            "leave_on_max": 0,
            "rinse_off_max": 0
          }
        },
        "storage": {
          "humidity_percent": {
            "max": 60
          },
          "special_instructions": "Store in a cool, dry place away from direct sunlight.",
          "temperature_celsius": {
            "max": 30,
            "min": 10
          }
        },
        "synonyms": [
          "Damiana Tincture"
        ]
      }
    ],
    "origin": {
      "processing_methods": [
        "Dried",
        "Powdered",
        "Extracted"
      ],
      "regions": [
        "Central America",
        "South America",
        "Southern United States"
      ],
      "source_material": "Leaves"
    },
    "primary_functions": [
      "Fragrance",
      "Flavor"
    ],
    "regulatory_notes": [
      "Generally recognized as safe (GRAS) when used as flavoring"
    ],
    "short_description": "Damiana is a shrub native to the Americas, known for its aromatic leaves and traditional use as an herbal remedy and aphrodisiac.",
    "taxonomy": {
      "color_profile": [
        "Green"
      ],
      "compatible_processes": [
        "Infusion",
        "Extraction",
        "Blending"
      ],
      "incompatible_processes": [],
      "scent_profile": [
        "Earthy",
        "Mildly Sweet"
      ],
      "texture_profile": [
        "Crumbly",
        "Fine Powder"
      ]
    }
  }
}