{
  "data_quality": {
    "caveats": [
      "SAP values, iodine value, and pH range for Dragon's Blood Resin are not widely documented or standardized."
    ],
    "confidence": 0.9
  },
  "ingredient": {
    "botanical_name": "Daemonorops draco",
    "cas_number": "9000-29-5",
    "category": "Resins (Natural)",
    "common_name": "Dragon's Blood Resin",
    "detailed_description": "Dragon's Blood Resin is a natural substance obtained from the fruit of the Daemonorops draco tree. It is traditionally used for its protective, healing, and coloring properties in various applications including cosmetics, herbalism, and artisanal crafts. The resin is known for its distinctive red color, which can vary from deep red to a darker, almost black hue, depending on its concentration and form.",
    "documentation": {
      "last_verified": "2023-12-01",
      "references": [
        {
          "notes": "Overview of traditional and contemporary uses in various industries.",
          "title": "Dragon's Blood Resin: Traditional Uses and Modern Applications",
          "url": "https://www.herbalgram.org"
        }
      ]
    },
    "inci_name": "Daemonorops draco (Dragon's Blood) extract",
    "items": [
      {
        "applications": [
          "Perfume",
          "Candle",
          "Wax Melt",
          "Incense",
          "Cold Process Soap",
          "Hot Process Soap"
        ],
        "form_bypass": false,
        "function_tags": [
          "Fragrance",
          "Colorant"
        ],
        "item_name": "Dragon's Blood Resin (Chunks)",
        "physical_form": "Chunks",
        "safety_tags": [
          "Avoid inhalation of dust",
          "Wear protective gloves when handling"
        ],
        "sds_hazards": [
          "Irritant"
        ],
        "shelf_life_days": 1825,
        "sourcing": {
          "certifications": [
            "Wildcrafted"
          ],
          "common_origins": [
            "Indonesia",
            "Malaysia"
          ],
          "supply_risks": [
            "Overharvesting",
            "Habitat destruction"
          ],
          "sustainability_notes": "Sourcing practices impact local ecosystems; sustainable harvesting is crucial."
        },
        "specifications": {
          "flash_point_celsius": 250,
          "iodine_value": "unknown",
          "melting_point_celsius": {
            "max": 80,
            "min": 70
          },
          "ph_range": {
            "max": "unknown",
            "min": "unknown"
          },
          "sap_koh": "unknown",
          "sap_naoh": "unknown",
          "usage_rate_percent": {
            "leave_on_max": 5,
            "rinse_off_max": 10
          }
        },
        "storage": {
          "humidity_percent": {
            "max": 60
          },
          "special_instructions": "Store in a cool, dry place away from direct sunlight.",
          "temperature_celsius": {
            "max": 25,
            "min": 15
          }
        },
        "synonyms": [
          "Dragon's blood chunks"
        ]
      },
      {
        "applications": [
          "Cold Process Soap",
          "Hot Process Soap",
          "Lotion",
          "Cream",
          "Balm",
          "Serum",
          "Scrub",
          "Lip Balm",
          "Chocolate",
          "Confection",
          "Baked Good"
        ],
        "form_bypass": false,
        "function_tags": [
          "Colorant",
          "Preservative"
        ],
        "item_name": "Dragon's Blood Resin (Powder)",
        "physical_form": "Powder",
        "safety_tags": [
          "Avoid inhalation",
          "Use with adequate ventilation"
        ],
        "sds_hazards": [
          "Irritant"
        ],
        "shelf_life_days": 1095,
        "sourcing": {
          "certifications": [
            "Wildcrafted"
          ],
          "common_origins": [
            "Indonesia",
            "Malaysia"
          ],
          "supply_risks": [
            "Overharvesting",
            "Habitat destruction"
          ],
          "sustainability_notes": "Sustainable sourcing and fair trade practices are recommended to mitigate environmental impact."
        },
        "specifications": {
          "flash_point_celsius": "unknown",
          "iodine_value": "unknown",
          "melting_point_celsius": {
            "max": "unknown",
            "min": "unknown"
          },
          "ph_range": {
            "max": "unknown",
            "min": "unknown"
          },
          "sap_koh": "unknown",
          "sap_naoh": "unknown",
          "usage_rate_percent": {
            "leave_on_max": 1,
            "rinse_off_max": 5
          }
        },
        "storage": {
          "humidity_percent": {
            "max": 60
          },
          "special_instructions": "Keep container tightly closed in a dry and well-ventilated place.",
          "temperature_celsius": {
            "max": 25,
            "min": 15
          }
        },
        "synonyms": [
          "Dragon's blood powder"
        ]
      }
    ],
    "origin": {
      "processing_methods": [
        "Exudation"
      ],
      "regions": [
        "Southeast Asia"
      ],
      "source_material": "Resin"
    },
    "primary_functions": [
      "Colorant",
      "Fragrance",
      "Preservative"
    ],
    "regulatory_notes": [
      "Generally recognized as safe (GRAS) for food use in limited quantities",
      "Considered safe for use in cosmetics within concentration limits"
    ],
    "short_description": "A natural resin known for its vibrant red color and healing properties.",
    "taxonomy": {
      "color_profile": [
        "Red",
        "Dark Red"
      ],
      "compatible_processes": [
        "Cold Process Soap",
        "Hot Process Soap",
        "Melt & Pour Soap",
        "Emulsion",
        "Anhydrous Balm",
        "Incense Making"
      ],
      "incompatible_processes": [
        "High-heat applications without adequate ventilation"
      ],
      "scent_profile": [
        "Earthy",
        "Spicy"
      ],
      "texture_profile": [
        "Brittle",
        "Powdery"
      ]
    }
  }
}