{
  "data_quality": {
    "caveats": [
      "Limited data on long-term storage stability"
    ],
    "confidence": 0.9
  },
  "ingredient": {
    "botanical_name": "Adansonia digitata",
    "cas_number": "91745-12-9",
    "category": "Oils (Carrier & Fixed)",
    "common_name": "Baobab Oil",
    "detailed_description": "Baobab oil is a pale yellow, viscous oil extracted from the seeds of the Baobab tree, known for its exceptional moisturizing properties and high content of vitamins A, D, E, and F, along with omega-3, omega-6, and omega-9 fatty acids. It is widely used in skincare and haircare formulations for its ability to improve skin elasticity, promote healing of damaged skin, and condition hair.",
    "documentation": {
      "last_verified": "2023-12-01",
      "references": [
        {
          "notes": "Review of safety and efficacy of Baobab Oil in cosmetic formulations.",
          "title": "Cosmetic Ingredient Review on Baobab Oil",
          "url": "https://www.cir-safety.org/ingredients/adansonia_digitata_seed_oil"
        }
      ]
    },
    "inci_name": "Adansonia Digitata Seed Oil",
    "items": [
      {
        "applications": [
          "Lotion",
          "Cream",
          "Balm",
          "Serum",
          "Haircare",
          "Skincare"
        ],
        "form_bypass": false,
        "function_tags": [
          "Emollient",
          "Antioxidant"
        ],
        "item_name": "Baobab Oil (Cold Pressed)",
        "physical_form": "Oil",
        "safety_tags": [],
        "sds_hazards": [],
        "shelf_life_days": 730,
        "sourcing": {
          "certifications": [
            "Organic",
            "Cold Pressed"
          ],
          "common_origins": [
            "Senegal",
            "Sudan",
            "Madagascar"
          ],
          "supply_risks": [
            "Limited harvest period"
          ],
          "sustainability_notes": "Sustainable harvesting practices are crucial for the preservation of Baobab trees."
        },
        "specifications": {
          "flash_point_celsius": 250,
          "iodine_value": 70,
          "melting_point_celsius": {
            "max": -5,
            "min": -10
          },
          "ph_range": {
            "max": 6,
            "min": 4.5
          },
          "sap_koh": 0.19,
          "sap_naoh": 0.135,
          "usage_rate_percent": {
            "leave_on_max": 10,
            "rinse_off_max": 100
          }
        },
        "storage": {
          "humidity_percent": {
            "max": 60
          },
          "special_instructions": "Store in a cool, dark place",
          "temperature_celsius": {
            "max": 30,
            "min": 10
          }
        },
        "synonyms": [
          "Adansonia digitata oil"
        ]
      }
    ],
    "origin": {
      "processing_methods": [
        "Cold Pressed"
      ],
      "regions": [
        "Africa"
      ],
      "source_material": "Seeds"
    },
    "primary_functions": [
      "Emollient"
    ],
    "regulatory_notes": [
      "Cosmetic Ingredient Review (CIR) approved",
      "Generally recognized as safe (GRAS)"
    ],
    "short_description": "A nutrient-rich oil extracted from the seeds of the Baobab tree.",
    "taxonomy": {
      "color_profile": [
        "Pale Yellow"
      ],
      "compatible_processes": [
        "Cold Process Soap",
        "Hot Process Soap",
        "Lotion",
        "Cream",
        "Balm",
        "Serum",
        "Haircare",
        "Skincare"
      ],
      "incompatible_processes": [],
      "scent_profile": [
        "Nutty"
      ],
      "texture_profile": [
        "Viscous"
      ]
    }
  }
}