{
  "data_quality": {
    "caveats": [
      "SAP values for basil essential oil are not widely documented."
    ],
    "confidence": 0.9
  },
  "ingredient": {
    "botanical_name": "Ocimum basilicum",
    "cas_number": "84775-71-3",
    "category": "Herbs & Spices (Dried Botanicals)",
    "common_name": "Basil",
    "detailed_description": "Basil, a culinary herb prominently featured in Italian and Southeast Asian cuisines, is also utilized in artisanal soap making, confections, cosmetics, herbalism, fermentation, aromatherapy, and small-batch baking. Its distinct aroma and flavor profile, along with its beneficial properties, make it a versatile ingredient in both culinary and non-culinary applications.",
    "documentation": {
      "last_verified": "2023-12-01",
      "references": [
        {
          "notes": "Details on the safe use of basil essential oil.",
          "title": "Essential Oil Safety: A Guide for Health Care Professionals",
          "url": "https://example.com"
        }
      ]
    },
    "inci_name": "OCIMUM BASILICUM (BASIL) LEAF",
    "items": [
      {
        "applications": [
          "Cold Process Soap",
          "Hot Process Soap",
          "Melt & Pour Soap",
          "Herbal Tincture",
          "Baked Good",
          "Confection"
        ],
        "form_bypass": false,
        "function_tags": [
          "Flavor",
          "Fragrance"
        ],
        "item_name": "Basil Leaf (Dried)",
        "physical_form": "Whole",
        "safety_tags": [],
        "sds_hazards": [],
        "shelf_life_days": 730,
        "sourcing": {
          "certifications": [
            "Organic"
          ],
          "common_origins": [
            "India",
            "Italy"
          ],
          "supply_risks": [
            "Seasonal variations may affect availability."
          ],
          "sustainability_notes": "Sustainable when sourced from certified organic farms."
        },
        "specifications": {},
        "storage": {
          "humidity_percent": {
            "max": 60
          },
          "special_instructions": "Store in a cool, dry place away from direct sunlight.",
          "temperature_celsius": {
            "max": 30,
            "min": 10
          }
        },
        "synonyms": [
          "Sweet Basil"
        ]
      },
      {
        "applications": [
          "Soap",
          "Perfume",
          "Candle",
          "Wax Melt",
          "Aromatherapy",
          "Skincare"
        ],
        "form_bypass": false,
        "function_tags": [
          "Fragrance",
          "Antioxidant"
        ],
        "item_name": "Basil Essential Oil",
        "physical_form": "Oil",
        "safety_tags": [
          "Dermal Limit 3.3%"
        ],
        "sds_hazards": [
          "Flammable"
        ],
        "shelf_life_days": 1095,
        "sourcing": {
          "certifications": [
            "Organic",
            "Therapeutic Grade"
          ],
          "common_origins": [
            "India",
            "Italy",
            "Egypt"
          ],
          "supply_risks": [
            "Adulteration with synthetic linalool"
          ],
          "sustainability_notes": "Sustainable sourcing practices are essential to prevent overharvesting."
        },
        "specifications": {
          "flash_point_celsius": 75,
          "iodine_value": "unknown",
          "melting_point_celsius": {
            "max": "unknown",
            "min": "unknown"
          },
          "ph_range": {
            "max": "unknown",
            "min": "unknown"
          },
          "sap_koh": "unknown",
          "sap_naoh": "unknown",
          "usage_rate_percent": {
            "leave_on_max": 3.3,
            "rinse_off_max": "unknown"
          }
        },
        "storage": {
          "humidity_percent": {
            "max": 60
          },
          "special_instructions": "Store in a cool, dark place in an airtight container.",
          "temperature_celsius": {
            "max": 25,
            "min": 5
          }
        },
        "synonyms": [
          "Basil Oil"
        ]
      }
    ],
    "origin": {
      "processing_methods": [
        "Dried",
        "Cold Pressed",
        "Solvent Extracted"
      ],
      "regions": [
        "Mediterranean",
        "Southeast Asia"
      ],
      "source_material": "Leaves"
    },
    "primary_functions": [
      "Flavor",
      "Fragrance",
      "Antioxidant"
    ],
    "regulatory_notes": [
      "Generally recognized as safe (GRAS)"
    ],
    "short_description": "Aromatic herb used in various artisanal formulations.",
    "taxonomy": {
      "color_profile": [
        "Green"
      ],
      "compatible_processes": [
        "Cold Process Soap",
        "Hot Process Soap",
        "Melt & Pour Soap",
        "Aromatherapy",
        "Baking",
        "Confectionery"
      ],
      "incompatible_processes": [],
      "scent_profile": [
        "Herbal",
        "Fresh",
        "Sweet"
      ],
      "texture_profile": [
        "Crumbly",
        "Oily"
      ]
    }
  }
}