{
  "data_quality": {
    "caveats": [
      "Supply risks and sustainability notes are based on general industry trends and may not apply to all suppliers."
    ],
    "confidence": 0.9
  },
  "ingredient": {
    "botanical_name": "",
    "cas_number": "1302-78-9",
    "category": "Clays",
    "common_name": "Bentonite Clay",
    "detailed_description": "Bentonite clay, also known as Montmorillonite clay, is a naturally occurring material that is composed primarily of montmorillonite, a type of mineral made from volcanic ash. It is highly absorbent and has a unique ability to produce an \"electrical charge\" when hydrated. Upon contact with fluid, its electrical components change, giving it the ability to absorb toxins. Bentonite is used in a variety of applications, including skincare, haircare, and detoxification.",
    "documentation": {
      "last_verified": "2023-12-01",
      "references": [
        {
          "notes": "Details on the GRAS status of bentonite clay for various applications.",
          "title": "FDA GRAS Notice for Bentonite Clay",
          "url": "https://www.fda.gov"
        },
        {
          "notes": "Provides regulatory status and safety information for bentonite clay in the EU.",
          "title": "EU Cosmetic Ingredient Database Entry for Bentonite",
          "url": "https://ec.europa.eu"
        }
      ]
    },
    "inci_name": "Bentonite",
    "items": [
      {
        "applications": [
          "Skincare",
          "Haircare",
          "Detoxification",
          "Cold Process Soap",
          "Hot Process Soap",
          "Bath Bomb"
        ],
        "form_bypass": false,
        "function_tags": [
          "Thickener",
          "Absorbent"
        ],
        "item_name": "Bentonite Clay (Powder)",
        "physical_form": "Powder",
        "safety_tags": [
          "Avoid inhalation of dust"
        ],
        "sds_hazards": [
          "May cause respiratory irritation if inhaled"
        ],
        "shelf_life_days": 1825,
        "sourcing": {
          "certifications": [
            "Organic",
            "Natural"
          ],
          "common_origins": [
            "United States",
            "India",
            "Italy"
          ],
          "supply_risks": [
            "Environmental impact of mining"
          ],
          "sustainability_notes": "Consider sourcing from suppliers that engage in responsible mining practices"
        },
        "specifications": {
          "flash_point_celsius": 0,
          "iodine_value": 0,
          "melting_point_celsius": {
            "max": 0,
            "min": 0
          },
          "ph_range": {
            "max": 10.5,
            "min": 8.5
          },
          "sap_koh": 0,
          "sap_naoh": 0,
          "usage_rate_percent": {
            "leave_on_max": 5,
            "rinse_off_max": 100
          }
        },
        "storage": {
          "humidity_percent": {
            "max": 50
          },
          "special_instructions": "Store in a dry, cool place",
          "temperature_celsius": {
            "max": 30,
            "min": 5
          }
        },
        "synonyms": [
          "Montmorillonite clay"
        ]
      }
    ],
    "origin": {
      "processing_methods": [
        "Sun dried",
        "Milled"
      ],
      "regions": [
        "United States",
        "India",
        "Italy"
      ],
      "source_material": "Volcanic ash"
    },
    "primary_functions": [
      "Thickener",
      "Absorbent"
    ],
    "regulatory_notes": [
      "Generally recognized as safe (GRAS) by the FDA",
      "Approved for use in cosmetics by the EU"
    ],
    "short_description": "Natural clay with a fine, soft texture.",
    "taxonomy": {
      "color_profile": [
        "Gray",
        "Cream"
      ],
      "compatible_processes": [
        "Cold Process Soap",
        "Hot Process Soap",
        "Bath Bomb",
        "Detoxification Protocol",
        "Skincare Formulation",
        "Haircare Formulation"
      ],
      "incompatible_processes": [],
      "scent_profile": [],
      "texture_profile": [
        "Fine",
        "Soft"
      ]
    }
  }
}