{
  "data_quality": {
    "caveats": [
      "SAP values for dried forms are not applicable"
    ],
    "confidence": 0.9
  },
  "ingredient": {
    "botanical_name": "Borago officinalis",
    "cas_number": "84012-16-8",
    "category": "Herbs & Spices (Dried Botanicals)",
    "common_name": "Borage",
    "detailed_description": "Borage (Borago officinalis), also known as starflower, is an annual herb from the Boraginaceae family, native to the Mediterranean region but has been naturalized in other locales. It is cultivated for its leaves, flowers, and seeds. The plant is recognized for its nutritional and medicinal properties, particularly the oil extracted from its seeds which is rich in gamma-linolenic acid (GLA), a type of omega-6 fatty acid. Borage is used in various applications including culinary, cosmetic, and medicinal fields.",
    "documentation": {
      "last_verified": "2023-12-01",
      "references": [
        {
          "notes": "Comprehensive overview of borage oil properties and applications.",
          "title": "Borage Oil: Characteristics and Uses",
          "url": "https://example.com/borage-oil-characteristics"
        }
      ]
    },
    "inci_name": "BORAGO OFFICINALIS SEED OIL",
    "items": [
      {
        "applications": [
          "Lotion",
          "Cream",
          "Balm",
          "Serum",
          "Skincare"
        ],
        "form_bypass": false,
        "function_tags": [
          "Emollient"
        ],
        "item_name": "Borage Oil",
        "physical_form": "Oil",
        "safety_tags": [
          "Dermal Limit 3%"
        ],
        "sds_hazards": [
          "Allergen"
        ],
        "shelf_life_days": 730,
        "sourcing": {
          "certifications": [
            "Organic",
            "Non-GMO"
          ],
          "common_origins": [
            "United Kingdom",
            "New Zealand"
          ],
          "supply_risks": [
            "Seasonal Harvest"
          ],
          "sustainability_notes": "Considered a sustainable source of GLA"
        },
        "specifications": {
          "flash_point_celsius": 250,
          "iodine_value": 130,
          "melting_point_celsius": {
            "max": -5,
            "min": -10
          },
          "ph_range": {
            "max": 7,
            "min": 5
          },
          "sap_koh": 0.19,
          "sap_naoh": 0.135,
          "usage_rate_percent": {
            "leave_on_max": 10,
            "rinse_off_max": 20
          }
        },
        "storage": {
          "humidity_percent": {
            "max": 60
          },
          "special_instructions": "Store in a cool, dark place",
          "temperature_celsius": {
            "max": 25,
            "min": 15
          }
        },
        "synonyms": [
          "Borago officinalis Seed Oil"
        ]
      },
      {
        "applications": [
          "Herbal Tincture",
          "Tea",
          "Infusion"
        ],
        "form_bypass": false,
        "function_tags": [
          "Flavor"
        ],
        "item_name": "Borage Dried Leaves",
        "physical_form": "Whole",
        "safety_tags": [
          "Consult before use if pregnant"
        ],
        "sds_hazards": [],
        "shelf_life_days": 365,
        "sourcing": {
          "certifications": [
            "Organic"
          ],
          "common_origins": [
            "Mediterranean",
            "Central Europe"
          ],
          "supply_risks": [
            "Seasonal availability"
          ],
          "sustainability_notes": "Easily cultivated with low environmental impact"
        },
        "specifications": {
          "flash_point_celsius": "unknown",
          "iodine_value": "unknown",
          "melting_point_celsius": "unknown",
          "ph_range": "unknown",
          "sap_koh": "unknown",
          "sap_naoh": "unknown",
          "usage_rate_percent": "unknown"
        },
        "storage": {
          "humidity_percent": {
            "max": 60
          },
          "special_instructions": "Store in a dry, dark place",
          "temperature_celsius": {
            "max": 30,
            "min": 10
          }
        },
        "synonyms": [
          "Starflower Leaves"
        ]
      },
      {
        "applications": [
          "Confection",
          "Decorative Topping",
          "Infusion"
        ],
        "form_bypass": false,
        "function_tags": [
          "Colorant",
          "Flavor"
        ],
        "item_name": "Borage Dried Flowers",
        "physical_form": "Whole",
        "safety_tags": [
          "Edible"
        ],
        "sds_hazards": [],
        "shelf_life_days": 365,
        "sourcing": {
          "certifications": [
            "Organic"
          ],
          "common_origins": [
            "Mediterranean",
            "Central Europe"
          ],
          "supply_risks": [
            "Seasonal availability"
          ],
          "sustainability_notes": "Easily cultivated with low environmental impact"
        },
        "specifications": {
          "flash_point_celsius": "unknown",
          "iodine_value": "unknown",
          "melting_point_celsius": "unknown",
          "ph_range": "unknown",
          "sap_koh": "unknown",
          "sap_naoh": "unknown",
          "usage_rate_percent": "unknown"
        },
        "storage": {
          "humidity_percent": {
            "max": 60
          },
          "special_instructions": "Store in a dry, dark place",
          "temperature_celsius": {
            "max": 30,
            "min": 10
          }
        },
        "synonyms": [
          "Starflower Blossoms"
        ]
      }
    ],
    "origin": {
      "processing_methods": [
        "Cold Pressed",
        "Dried",
        "Solvent Extracted"
      ],
      "regions": [
        "Mediterranean"
      ],
      "source_material": "Leaves, Flowers, Seeds"
    },
    "primary_functions": [
      "Emollient",
      "Flavor",
      "Colorant"
    ],
    "regulatory_notes": [
      "Generally recognized as safe (GRAS) when used in accordance with good manufacturing practice",
      "IFRA safe"
    ],
    "short_description": "Borage, also known as starflower, is an annual herb native to the Mediterranean region.",
    "taxonomy": {
      "color_profile": [
        "Green",
        "Blue"
      ],
      "compatible_processes": [
        "Cold Process Soap",
        "Hot Process",
        "Infusion",
        "Emulsion",
        "Anhydrous Balm"
      ],
      "incompatible_processes": [
        "High-heat cooking"
      ],
      "scent_profile": [
        "Fresh",
        "Herbaceous"
      ],
      "texture_profile": [
        "Oily",
        "Dry"
      ]
    }
  }
}