{
  "data_quality": {
    "caveats": [
      "Botanical name not applicable as caffeine is a compound extracted from various plants."
    ],
    "confidence": 0.95
  },
  "ingredient": {
    "botanical_name": "",
    "cas_number": "58-08-2",
    "category": "Preservatives & Additives",
    "common_name": "Caffeine",
    "detailed_description": "Caffeine is a central nervous system stimulant of the methylxanthine class. It is the world's most widely consumed psychoactive drug. Unlike many other psychoactive substances, it is legal and unregulated in nearly all parts of the world. Caffeine helps to ward off drowsiness and restore alertness. Artisans use it in various applications due to its stimulating properties.",
    "documentation": {
      "last_verified": "2023-12-01",
      "references": [
        {
          "notes": "Confirms caffeine's status as Generally Recognized As Safe (GRAS)",
          "title": "FDA GRAS Notice for Caffeine",
          "url": "https://www.fda.gov"
        },
        {
          "notes": "Details on the safe use of caffeine in fragrances",
          "title": "IFRA Standards",
          "url": "https://ifrafragrance.org"
        }
      ]
    },
    "inci_name": "Caffeine",
    "items": [
      {
        "applications": [
          "Chocolate",
          "Confection",
          "Baked Good",
          "Beverage",
          "Fermented Beverage",
          "Skincare",
          "Haircare"
        ],
        "form_bypass": false,
        "function_tags": [
          "Flavor",
          "Bittering Agent",
          "Fermentation Nutrient"
        ],
        "item_name": "Caffeine Powder",
        "physical_form": "Powder",
        "safety_tags": [
          "Keep out of reach of children",
          "Use with caution; overdose can be lethal"
        ],
        "sds_hazards": [
          "Harmful if swallowed",
          "Causes serious eye irritation"
        ],
        "shelf_life_days": 1825,
        "sourcing": {
          "certifications": [
            "Organic",
            "Fair Trade"
          ],
          "common_origins": [
            "Brazil",
            "Vietnam",
            "China"
          ],
          "supply_risks": [
            "Dependent on coffee and tea crop yields"
          ],
          "sustainability_notes": "Consider sourcing from suppliers that support sustainable farming practices"
        },
        "specifications": {
          "flash_point_celsius": 178,
          "iodine_value": 0,
          "melting_point_celsius": {
            "max": 238,
            "min": 235
          },
          "ph_range": {
            "max": 7.3,
            "min": 6.9
          },
          "sap_koh": 0,
          "sap_naoh": 0,
          "usage_rate_percent": {
            "leave_on_max": 0.5,
            "rinse_off_max": 1.5
          }
        },
        "storage": {
          "humidity_percent": {
            "max": 60
          },
          "special_instructions": "Store in a cool, dry place",
          "temperature_celsius": {
            "max": 30,
            "min": 0
          }
        },
        "synonyms": [
          "Anhydrous caffeine"
        ]
      },
      {
        "applications": [
          "Skincare",
          "Haircare",
          "Beverage",
          "Confection"
        ],
        "form_bypass": false,
        "function_tags": [
          "Antioxidant",
          "Stimulant"
        ],
        "item_name": "Caffeine Crystals",
        "physical_form": "Crystals",
        "safety_tags": [
          "Avoid inhalation",
          "Use with guidance"
        ],
        "sds_hazards": [
          "Irritant"
        ],
        "shelf_life_days": 1825,
        "sourcing": {
          "certifications": [
            "Organic",
            "Fair Trade"
          ],
          "common_origins": [
            "Brazil",
            "Vietnam",
            "China"
          ],
          "supply_risks": [
            "Dependent on coffee and tea crop yields"
          ],
          "sustainability_notes": "Sustainable sourcing is crucial to minimize environmental impact"
        },
        "specifications": {
          "flash_point_celsius": 178,
          "iodine_value": 0,
          "melting_point_celsius": {
            "max": 238,
            "min": 235
          },
          "ph_range": {
            "max": 7.3,
            "min": 6.9
          },
          "sap_koh": 0,
          "sap_naoh": 0,
          "usage_rate_percent": {
            "leave_on_max": 0.5,
            "rinse_off_max": 1.5
          }
        },
        "storage": {
          "humidity_percent": {
            "max": 60
          },
          "special_instructions": "Keep tightly closed in a dry and cool place",
          "temperature_celsius": {
            "max": 30,
            "min": 0
          }
        },
        "synonyms": [
          "Caffeine anhydrous"
        ]
      }
    ],
    "origin": {
      "processing_methods": [
        "Extraction"
      ],
      "regions": [
        "South America",
        "East Asia"
      ],
      "source_material": "Coffee beans, Tea leaves"
    },
    "primary_functions": [
      "Antioxidant",
      "Flavor",
      "Bittering Agent",
      "Fermentation Nutrient"
    ],
    "regulatory_notes": [
      "Generally recognized as safe (GRAS) by the FDA",
      "IFRA safe"
    ],
    "short_description": "A bitter alkaloid found in coffee and tea that is used as a stimulant.",
    "taxonomy": {
      "color_profile": [
        "White"
      ],
      "compatible_processes": [
        "Cold Process Soap",
        "Hot Process",
        "Sugar Confectionery",
        "Emulsion",
        "Anhydrous Balm",
        "Small Batch Brewing"
      ],
      "incompatible_processes": [],
      "scent_profile": [],
      "texture_profile": [
        "Fine",
        "Crystalline"
      ]
    }
  }
}