{
  "data_quality": {
    "caveats": [
      "Regulatory status of CBD may vary by region and application."
    ],
    "confidence": 0.9
  },
  "ingredient": {
    "botanical_name": "Cannabis sativa",
    "cas_number": "13956-29-1",
    "category": "Extracts (Alcohols & Solvents)",
    "common_name": "Cannabidiol (CBD)",
    "detailed_description": "Cannabidiol (CBD) is a naturally occurring compound found in the resinous flower of cannabis, a plant with a rich history as a medicine going back thousands of years. Today, the therapeutic properties of CBD are being tested and confirmed by scientists and doctors around the world. It is a safe, non-addictive substance, known for its potential therapeutic benefits in various applications including skincare, health supplements, and artisanal crafts.",
    "documentation": {
      "last_verified": "2023-12-01",
      "references": [
        {
          "notes": "Key regulatory reference for CBD specifications and safety.",
          "title": "USP Monograph on Cannabidiol",
          "url": "https://example.com"
        }
      ]
    },
    "inci_name": "Cannabidiol",
    "items": [
      {
        "applications": [
          "Lotion",
          "Cream",
          "Balm",
          "Serum",
          "Lip Balm",
          "Skincare"
        ],
        "form_bypass": false,
        "function_tags": [
          "Emollient",
          "Antioxidant"
        ],
        "item_name": "CBD Oil",
        "physical_form": "Oil",
        "safety_tags": [
          "Consult regulations for concentration use"
        ],
        "sds_hazards": [
          "Refer to supplier SDS"
        ],
        "shelf_life_days": 730,
        "sourcing": {
          "certifications": [
            "Organic",
            "Non-GMO"
          ],
          "common_origins": [
            "USA",
            "Canada",
            "European Union"
          ],
          "supply_risks": [
            "Regulatory changes"
          ],
          "sustainability_notes": "Sustainable farming practices encouraged"
        },
        "specifications": {
          "flash_point_celsius": "unknown",
          "iodine_value": "unknown",
          "melting_point_celsius": {
            "max": 25,
            "min": -20
          },
          "ph_range": {
            "max": 7,
            "min": 5
          },
          "sap_koh": "unknown",
          "sap_naoh": "unknown",
          "usage_rate_percent": {
            "leave_on_max": 5,
            "rinse_off_max": 15
          }
        },
        "storage": {
          "humidity_percent": {
            "max": 60
          },
          "special_instructions": "Keep in a cool, dark place",
          "temperature_celsius": {
            "max": 25,
            "min": 15
          }
        },
        "synonyms": [
          "Cannabidiol Oil"
        ]
      },
      {
        "applications": [
          "Confection",
          "Baked Good",
          "Beverage",
          "Herbal Tincture"
        ],
        "form_bypass": false,
        "function_tags": [
          "Flavor",
          "Antioxidant"
        ],
        "item_name": "CBD Isolate Powder",
        "physical_form": "Powder",
        "safety_tags": [
          "Consult regulations for concentration use"
        ],
        "sds_hazards": [
          "Refer to supplier SDS"
        ],
        "shelf_life_days": 1095,
        "sourcing": {
          "certifications": [
            "Organic",
            "Non-GMO"
          ],
          "common_origins": [
            "USA",
            "Canada",
            "European Union"
          ],
          "supply_risks": [
            "Regulatory changes"
          ],
          "sustainability_notes": "Sustainable farming practices encouraged"
        },
        "specifications": {
          "flash_point_celsius": "unknown",
          "iodine_value": "unknown",
          "melting_point_celsius": {
            "max": 66,
            "min": 62
          },
          "ph_range": {
            "max": 7,
            "min": 5
          },
          "sap_koh": "unknown",
          "sap_naoh": "unknown",
          "usage_rate_percent": {
            "leave_on_max": 5,
            "rinse_off_max": 15
          }
        },
        "storage": {
          "humidity_percent": {
            "max": 60
          },
          "special_instructions": "Keep in a cool, dark, dry place",
          "temperature_celsius": {
            "max": 25,
            "min": 15
          }
        },
        "synonyms": [
          "Cannabidiol Crystal"
        ]
      }
    ],
    "origin": {
      "processing_methods": [
        "Solvent Extracted",
        "CO2 Extracted"
      ],
      "regions": [
        "North America",
        "Europe"
      ],
      "source_material": "Cannabis sativa plant"
    },
    "primary_functions": [
      "Emollient",
      "Antioxidant"
    ],
    "regulatory_notes": [
      "IFRA safe",
      "Food grade"
    ],
    "short_description": "Non-psychoactive compound derived from the cannabis plant.",
    "taxonomy": {
      "color_profile": [
        "Clear",
        "White"
      ],
      "compatible_processes": [
        "Cold Process Soap",
        "Hot Process",
        "Emulsion",
        "Anhydrous Balm"
      ],
      "incompatible_processes": [
        "High-heat frying"
      ],
      "scent_profile": [
        "Earthy"
      ],
      "texture_profile": [
        "Oily",
        "Crystalline"
      ]
    }
  }
}