{
  "data_quality": {
    "caveats": [
      "SAP values, iodine values, and exact pH ranges for some forms are not well-documented."
    ],
    "confidence": 0.9
  },
  "ingredient": {
    "botanical_name": "Capsicum annuum",
    "cas_number": "84625-29-6",
    "category": "Herbs & Spices (Dried Botanicals)",
    "common_name": "Capsicum",
    "detailed_description": "Capsicum annuum is a species of the plant genus Capsicum native to southern North America and northern South America. This plant produces fruits in varying colors including red, yellow, green, and orange. Capsicum is used in a wide range of culinary and artisanal applications for its pungent flavor and is also noted for its health benefits, including high vitamin C content and capsaicin, which is believed to have analgesic properties.",
    "documentation": {
      "last_verified": "2023-12-01",
      "references": [
        {
          "notes": "Comprehensive overview of Capsicum annuum properties and uses.",
          "title": "Capsicum annuum - an overview",
          "url": "https://www.sciencedirect.com/topics/agricultural-and-biological-sciences/capsicum-annuum"
        }
      ]
    },
    "inci_name": "Capsicum annuum extract",
    "items": [
      {
        "applications": [
          "Cold Process Soap",
          "Hot Process Soap",
          "Lotion",
          "Cream",
          "Balm",
          "Serum",
          "Scrub",
          "Chocolate",
          "Confection",
          "Baked Good",
          "Beverage",
          "Herbal Tincture"
        ],
        "form_bypass": false,
        "function_tags": [
          "Colorant",
          "Flavor",
          "Antioxidant"
        ],
        "item_name": "Capsicum Powder",
        "physical_form": "Powder",
        "safety_tags": [
          "Avoid inhalation",
          "May cause irritation on sensitive skin"
        ],
        "sds_hazards": [
          "Irritant"
        ],
        "shelf_life_days": 730,
        "sourcing": {
          "certifications": [
            "Organic"
          ],
          "common_origins": [
            "Mexico",
            "India",
            "China"
          ],
          "supply_risks": [
            "Seasonal variations"
          ],
          "sustainability_notes": "Widely cultivated with minimal environmental impact"
        },
        "specifications": {
          "flash_point_celsius": "unknown",
          "iodine_value": "unknown",
          "melting_point_celsius": "unknown",
          "ph_range": {
            "max": 7,
            "min": 5.5
          },
          "sap_koh": "unknown",
          "sap_naoh": "unknown",
          "usage_rate_percent": {
            "leave_on_max": 1,
            "rinse_off_max": 5
          }
        },
        "storage": {
          "humidity_percent": {
            "max": 60
          },
          "special_instructions": "Store in a cool, dry place away from direct sunlight",
          "temperature_celsius": {
            "max": 30,
            "min": 10
          }
        },
        "synonyms": [
          "Chili Powder",
          "Paprika"
        ]
      },
      {
        "applications": [
          "Perfume",
          "Serum",
          "Balm",
          "Lotion"
        ],
        "form_bypass": false,
        "function_tags": [
          "Fragrance",
          "Antioxidant"
        ],
        "item_name": "Capsicum Essential Oil",
        "physical_form": "Oil",
        "safety_tags": [
          "Dilute before use",
          "Patch test recommended"
        ],
        "sds_hazards": [
          "Irritant"
        ],
        "shelf_life_days": 365,
        "sourcing": {
          "certifications": [
            "Organic"
          ],
          "common_origins": [
            "India",
            "China"
          ],
          "supply_risks": [
            "Limited availability"
          ],
          "sustainability_notes": "Extraction process may impact sustainability"
        },
        "specifications": {
          "flash_point_celsius": 93,
          "iodine_value": "unknown",
          "melting_point_celsius": "unknown",
          "ph_range": "unknown",
          "sap_koh": "unknown",
          "sap_naoh": "unknown",
          "usage_rate_percent": {
            "leave_on_max": 0.1,
            "rinse_off_max": 1
          }
        },
        "storage": {
          "humidity_percent": {
            "max": 60
          },
          "special_instructions": "Store in a cool, dark place",
          "temperature_celsius": {
            "max": 25,
            "min": 5
          }
        },
        "synonyms": [
          "Chili Seed Oil"
        ]
      },
      {
        "applications": [
          "Food Coloring",
          "Spice Blend",
          "Cosmetic Products"
        ],
        "form_bypass": false,
        "function_tags": [
          "Colorant",
          "Flavor"
        ],
        "item_name": "Capsicum Oleoresin",
        "physical_form": "Resin",
        "safety_tags": [
          "Avoid direct contact with skin",
          "Use in dilution"
        ],
        "sds_hazards": [
          "Irritant"
        ],
        "shelf_life_days": 1095,
        "sourcing": {
          "certifications": [
            "Organic",
            "Non-GMO"
          ],
          "common_origins": [
            "Spain",
            "Peru"
          ],
          "supply_risks": [
            "Climate-dependent crop"
          ],
          "sustainability_notes": "Sustainable practices in cultivation recommended"
        },
        "specifications": {
          "flash_point_celsius": "unknown",
          "iodine_value": "unknown",
          "melting_point_celsius": "unknown",
          "ph_range": "unknown",
          "sap_koh": "unknown",
          "sap_naoh": "unknown",
          "usage_rate_percent": {
            "leave_on_max": 0.5,
            "rinse_off_max": 2
          }
        },
        "storage": {
          "humidity_percent": {
            "max": 60
          },
          "special_instructions": "Store in a cool, dry place, away from light",
          "temperature_celsius": {
            "max": 30,
            "min": 10
          }
        },
        "synonyms": [
          "Capsicum Extract",
          "Paprika Extract"
        ]
      }
    ],
    "origin": {
      "processing_methods": [
        "Dried",
        "Cold Pressed",
        "Solvent Extracted"
      ],
      "regions": [
        "North America",
        "South America"
      ],
      "source_material": "Fruit"
    },
    "primary_functions": [
      "Flavor",
      "Colorant",
      "Antioxidant"
    ],
    "regulatory_notes": [
      "Generally recognized as safe (GRAS)"
    ],
    "short_description": "Capsicum, commonly known as bell pepper or chili pepper, is a fruit used for its spicy flavor and health benefits.",
    "taxonomy": {
      "color_profile": [
        "Red",
        "Green",
        "Yellow",
        "Orange"
      ],
      "compatible_processes": [
        "Cold Process Soap",
        "Hot Process Soap",
        "Emulsion",
        "Anhydrous Balm",
        "Infusion"
      ],
      "incompatible_processes": [
        "High-heat applications without dilution"
      ],
      "scent_profile": [
        "Spicy"
      ],
      "texture_profile": [
        "Powdery",
        "Oily",
        "Resinous"
      ]
    }
  }
}