{
  "data_quality": {
    "caveats": [
      "Supply risks and sustainability notes are generalized and may vary by region."
    ],
    "confidence": 0.9
  },
  "ingredient": {
    "botanical_name": "Matricaria chamomilla",
    "cas_number": "84082-60-0",
    "category": "Herbs & Spices (Dried Botanicals)",
    "common_name": "Chamomile",
    "detailed_description": "Chamomile is a herb known for its gentle, soothing properties and is widely used in cosmetics, herbalism, and the food industry. It has a mild, sweet fragrance and is recognized for its anti-inflammatory, calming, and healing benefits. Chamomile is used in various forms including dried flowers, essential oils, and extracts.",
    "documentation": {
      "last_verified": "2023-12-01",
      "references": [
        {
          "notes": "Comprehensive guide on chamomile's uses and benefits.",
          "title": "Herbal Materia Medica",
          "url": "https://example.com"
        }
      ]
    },
    "inci_name": "CHAMOMILLA RECUTITA (MATRICARIA) FLOWER",
    "items": [
      {
        "applications": [
          "Herbal Tincture",
          "Tea",
          "Bath Bomb",
          "Cold Process Soap",
          "Hot Process Soap"
        ],
        "form_bypass": false,
        "function_tags": [
          "Fragrance",
          "Flavor"
        ],
        "item_name": "Chamomile Flowers (Dried)",
        "physical_form": "Whole",
        "safety_tags": [],
        "sds_hazards": [],
        "shelf_life_days": 730,
        "sourcing": {
          "certifications": [
            "Organic"
          ],
          "common_origins": [
            "Germany",
            "Hungary",
            "Egypt"
          ],
          "supply_risks": [
            "Seasonal Harvest"
          ],
          "sustainability_notes": "Sustainable when cultivated responsibly"
        },
        "specifications": {},
        "storage": {
          "humidity_percent": {
            "max": 60
          },
          "special_instructions": "Store in a cool, dry place away from direct sunlight.",
          "temperature_celsius": {
            "max": 30,
            "min": 10
          }
        },
        "synonyms": [
          "Chamomile Buds"
        ]
      },
      {
        "applications": [
          "Perfume",
          "Serum",
          "Balm",
          "Candle",
          "Wax Melt"
        ],
        "form_bypass": false,
        "function_tags": [
          "Fragrance"
        ],
        "item_name": "Chamomile Essential Oil",
        "physical_form": "Oil",
        "safety_tags": [
          "Dermal Limit 0.7%"
        ],
        "sds_hazards": [
          "Flammable"
        ],
        "shelf_life_days": 1095,
        "sourcing": {
          "certifications": [
            "Organic",
            "Fair Trade"
          ],
          "common_origins": [
            "Egypt",
            "Nepal"
          ],
          "supply_risks": [
            "Limited Suppliers"
          ],
          "sustainability_notes": "Extraction impacts sustainability; prefer steam distilled."
        },
        "specifications": {
          "flash_point_celsius": 61,
          "ph_range": {
            "max": 7,
            "min": 5
          }
        },
        "storage": {
          "humidity_percent": {
            "max": 60
          },
          "special_instructions": "Store in a cool, dark place in an airtight container.",
          "temperature_celsius": {
            "max": 25,
            "min": 5
          }
        },
        "synonyms": [
          "Chamomile Oil"
        ]
      },
      {
        "applications": [
          "Lotion",
          "Cream",
          "Serum",
          "Skincare"
        ],
        "form_bypass": false,
        "function_tags": [
          "Antioxidant",
          "Fragrance"
        ],
        "item_name": "Chamomile Extract",
        "physical_form": "Liquid",
        "safety_tags": [],
        "sds_hazards": [],
        "shelf_life_days": 365,
        "sourcing": {
          "certifications": [
            "Organic"
          ],
          "common_origins": [
            "Europe",
            "Asia"
          ],
          "supply_risks": [
            "Seasonal Harvest"
          ],
          "sustainability_notes": "Ethanol extraction can be resource-intensive"
        },
        "specifications": {},
        "storage": {
          "humidity_percent": {
            "max": 60
          },
          "special_instructions": "Store in a cool, dark place.",
          "temperature_celsius": {
            "max": 25,
            "min": 5
          }
        },
        "synonyms": [
          "Chamomile Tincture"
        ]
      }
    ],
    "origin": {
      "processing_methods": [
        "Dried",
        "Steam Distilled",
        "Cold Pressed",
        "Solvent Extracted"
      ],
      "regions": [
        "Europe",
        "Asia"
      ],
      "source_material": "Flowers"
    },
    "primary_functions": [
      "Fragrance",
      "Flavor",
      "Antioxidant"
    ],
    "regulatory_notes": [
      "Generally recognized as safe (GRAS)"
    ],
    "short_description": "A flowering plant used for its soothing properties and mild fragrance.",
    "taxonomy": {
      "color_profile": [
        "Yellow",
        "Green"
      ],
      "compatible_processes": [
        "Cold Process Soap",
        "Hot Process Soap",
        "Infusion",
        "Hydro-distillation",
        "Solvent Extraction"
      ],
      "incompatible_processes": [],
      "scent_profile": [
        "Sweet",
        "Herbal"
      ],
      "texture_profile": [
        "Dry",
        "Brittle"
      ]
    }
  }
}