{
  "data_quality": {
    "caveats": [
      "Shelf life can vary based on storage conditions and purity of the oil."
    ],
    "confidence": 0.9
  },
  "ingredient": {
    "botanical_name": "Cocos nucifera",
    "cas_number": "8001-31-8",
    "category": "Oils (Carrier & Fixed)",
    "common_name": "Coconut Oil",
    "detailed_description": "Coconut oil is extracted from the kernel or meat of mature coconuts harvested from the coconut palm. It has various applications in food, medicine, and industry. The oil has a high saturated fat content, which gives it a long shelf life and the ability to remain stable at high temperatures.",
    "documentation": {
      "last_verified": "2023-12-01",
      "references": [
        {
          "notes": "Confirms the GRAS status of coconut oil.",
          "title": "FDA GRAS Notice",
          "url": "https://www.fda.gov"
        },
        {
          "notes": "Details the safety assessment of coconut oil in cosmetics.",
          "title": "CIR Safety Review",
          "url": "https://www.cir-safety.org/ingredients"
        }
      ]
    },
    "inci_name": "Cocos Nucifera (Coconut) Oil",
    "items": [
      {
        "applications": [
          "Cold Process Soap",
          "Hot Process Soap",
          "Lotion",
          "Cream",
          "Balm",
          "Serum",
          "Scrub",
          "Lip Balm",
          "Chocolate",
          "Baked Good"
        ],
        "form_bypass": false,
        "function_tags": [
          "Emollient",
          "Antioxidant"
        ],
        "item_name": "Coconut Oil (Virgin)",
        "physical_form": "Oil",
        "safety_tags": [],
        "sds_hazards": [],
        "shelf_life_days": 730,
        "sourcing": {
          "certifications": [
            "Organic",
            "Fair Trade"
          ],
          "common_origins": [
            "Philippines",
            "Indonesia",
            "India"
          ],
          "supply_risks": [
            "Climate change impacts"
          ],
          "sustainability_notes": "Sustainable sourcing is crucial due to environmental concerns over deforestation."
        },
        "specifications": {
          "flash_point_celsius": 250,
          "iodine_value": 7.5,
          "melting_point_celsius": {
            "max": 26,
            "min": 23
          },
          "ph_range": {
            "max": 7.5,
            "min": 6
          },
          "sap_koh": 0.257,
          "sap_naoh": 0.183,
          "usage_rate_percent": {
            "leave_on_max": 100,
            "rinse_off_max": 100
          }
        },
        "storage": {
          "humidity_percent": {
            "max": 60
          },
          "special_instructions": "Store in a cool, dry place away from direct sunlight.",
          "temperature_celsius": {
            "max": 25,
            "min": 15
          }
        },
        "synonyms": [
          "Extra Virgin Coconut Oil",
          "Unrefined Coconut Oil"
        ]
      },
      {
        "applications": [
          "Cold Process Soap",
          "Hot Process Soap",
          "Lotion",
          "Cream",
          "Balm",
          "Serum",
          "Scrub",
          "Lip Balm",
          "Chocolate",
          "Baked Good",
          "Cleaner",
          "Detergent"
        ],
        "form_bypass": false,
        "function_tags": [
          "Emollient",
          "Surfactant",
          "Emulsifier"
        ],
        "item_name": "Coconut Oil (Refined)",
        "physical_form": "Oil",
        "safety_tags": [],
        "sds_hazards": [],
        "shelf_life_days": 730,
        "sourcing": {
          "certifications": [
            "Non-GMO",
            "Sustainable Palm"
          ],
          "common_origins": [
            "Philippines",
            "Indonesia",
            "India"
          ],
          "supply_risks": [
            "Climate change impacts"
          ],
          "sustainability_notes": "Refined versions may lack the sustainability certifications of virgin oils."
        },
        "specifications": {
          "flash_point_celsius": 250,
          "iodine_value": 8,
          "melting_point_celsius": {
            "max": 27,
            "min": 24
          },
          "ph_range": {
            "max": 7.5,
            "min": 6
          },
          "sap_koh": 0.257,
          "sap_naoh": 0.183,
          "usage_rate_percent": {
            "leave_on_max": 100,
            "rinse_off_max": 100
          }
        },
        "storage": {
          "humidity_percent": {
            "max": 60
          },
          "special_instructions": "Store in a cool, dry place away from direct sunlight.",
          "temperature_celsius": {
            "max": 30,
            "min": 15
          }
        },
        "synonyms": [
          "RBD Coconut Oil"
        ]
      }
    ],
    "origin": {
      "processing_methods": [
        "Cold Pressed",
        "Expeller Pressed",
        "Refined"
      ],
      "regions": [
        "Southeast Asia",
        "Pacific Islands",
        "Caribbean"
      ],
      "source_material": "Coconut meat"
    },
    "primary_functions": [
      "Emollient",
      "Surfactant",
      "Emulsifier",
      "Antioxidant"
    ],
    "regulatory_notes": [
      "Generally recognized as safe (GRAS) by the FDA",
      "Cosmetic Ingredient Review (CIR) approved"
    ],
    "short_description": "A versatile oil extracted from the meat of coconuts.",
    "taxonomy": {
      "color_profile": [
        "Translucent",
        "White"
      ],
      "compatible_processes": [
        "Cold Process Soap",
        "Hot Process",
        "Lotion Crafting",
        "Chocolate Making",
        "Baking"
      ],
      "incompatible_processes": [
        "High-heat frying for unrefined types"
      ],
      "scent_profile": [
        "Nutty"
      ],
      "texture_profile": [
        "Oily"
      ]
    }
  }
}