{
  "data_quality": {
    "caveats": [
      "SAP values, iodine value, and pH range for cypress essential oil are not commonly specified due to its primary use as a fragrance or therapeutic agent rather than a soap-making oil."
    ],
    "confidence": 0.9
  },
  "ingredient": {
    "botanical_name": "Cupressus sempervirens",
    "cas_number": "8013-86-3",
    "category": "Essential Oils",
    "common_name": "Cypress",
    "detailed_description": "Cypress essential oil is known for its fresh, clean, and woody aroma, making it a popular choice in aromatherapy and various artisanal formulations. It is obtained primarily through steam distillation of the young twigs, stems, and needles of the Cupressus sempervirens tree. Cypress oil is reputed for its astringent, antiseptic, and calming properties, making it beneficial for use in skincare, perfumery, and as a fragrance component in soaps and candles.",
    "documentation": {
      "last_verified": "2023-12-01",
      "references": [
        {
          "notes": "Comprehensive guide on the safe use of essential oils, including cypress.",
          "title": "Essential Oil Safety: A Guide for Health Care Professionals",
          "url": "https://example.com"
        }
      ]
    },
    "inci_name": "CUPRESSUS SEMPERVIRENS LEAF/STEM EXTRACT",
    "items": [
      {
        "applications": [
          "Perfume",
          "Candle",
          "Wax Melt",
          "Lotion",
          "Cream",
          "Balm",
          "Serum",
          "Scrub",
          "Cold Process Soap",
          "Hot Process Soap",
          "Melt & Pour Soap",
          "Skincare",
          "Haircare",
          "Deodorant"
        ],
        "form_bypass": false,
        "function_tags": [
          "Fragrance",
          "Antioxidant",
          "Preservative"
        ],
        "item_name": "Cypress Essential Oil",
        "physical_form": "Oil",
        "safety_tags": [
          "Avoid during pregnancy",
          "Dermal Limit 5%"
        ],
        "sds_hazards": [],
        "shelf_life_days": 1095,
        "sourcing": {
          "certifications": [
            "Organic"
          ],
          "common_origins": [
            "France",
            "Spain",
            "Morocco"
          ],
          "supply_risks": [
            "Seasonal variability"
          ],
          "sustainability_notes": "Sustainable harvesting practices are important to prevent overexploitation."
        },
        "specifications": {
          "flash_point_celsius": 60,
          "iodine_value": "unknown",
          "melting_point_celsius": {
            "max": "unknown",
            "min": "unknown"
          },
          "ph_range": {
            "max": "unknown",
            "min": "unknown"
          },
          "sap_koh": "unknown",
          "sap_naoh": "unknown",
          "usage_rate_percent": {
            "leave_on_max": 5,
            "rinse_off_max": "unknown"
          }
        },
        "storage": {
          "humidity_percent": {
            "max": 60
          },
          "special_instructions": "Store in a cool, dark place",
          "temperature_celsius": {
            "max": 25,
            "min": 5
          }
        },
        "synonyms": []
      }
    ],
    "origin": {
      "processing_methods": [
        "Steam Distilled"
      ],
      "regions": [
        "Mediterranean"
      ],
      "source_material": "Leaves and branches"
    },
    "primary_functions": [
      "Fragrance",
      "Antioxidant",
      "Preservative"
    ],
    "regulatory_notes": [
      "IFRA safe"
    ],
    "short_description": "Cypress essential oil is derived from the leaves and branches of the cypress tree.",
    "taxonomy": {
      "color_profile": [
        "Clear",
        "Pale Yellow"
      ],
      "compatible_processes": [
        "Cold Process Soap",
        "Hot Process Soap",
        "Melt & Pour Soap",
        "Emulsion",
        "Anhydrous Balm",
        "Hydro-distillation"
      ],
      "incompatible_processes": [],
      "scent_profile": [
        "Woody",
        "Fresh"
      ],
      "texture_profile": [
        "Liquid"
      ]
    }
  }
}