{
  "data_quality": {
    "caveats": [
      "Seasonal availability may affect sourcing."
    ],
    "confidence": 0.9
  },
  "ingredient": {
    "botanical_name": "Taraxacum officinale",
    "cas_number": "68990-74-9",
    "category": "Herbs & Spices (Dried Botanicals)",
    "common_name": "Dandelion Root",
    "detailed_description": "Dandelion root is a versatile ingredient used in a variety of artisanal applications. It is recognized for its diuretic, digestive, and detoxifying properties. In craft production, it is utilized in forms such as dried, powdered, and as an extract for applications in soap making, confections, cosmetics, herbalism, and small-batch baking.",
    "documentation": {
      "last_verified": "2023-12-01",
      "references": [
        {
          "notes": "Comprehensive details on medicinal properties and applications.",
          "title": "Herbal Materia Medica",
          "url": "https://example.com"
        }
      ]
    },
    "inci_name": "Taraxacum Officinale (Dandelion) Root",
    "items": [
      {
        "applications": [
          "Herbal Tincture",
          "Tea",
          "Beverage"
        ],
        "form_bypass": false,
        "function_tags": [
          "Flavor",
          "Bittering Agent"
        ],
        "item_name": "Dandelion Root (Dried)",
        "physical_form": "Whole",
        "safety_tags": [],
        "sds_hazards": [],
        "shelf_life_days": 730,
        "sourcing": {
          "certifications": [
            "Organic"
          ],
          "common_origins": [
            "Europe",
            "North America"
          ],
          "supply_risks": [
            "Seasonal availability"
          ],
          "sustainability_notes": "Widely available and considered a renewable resource"
        },
        "specifications": {
          "flash_point_celsius": 0,
          "iodine_value": 0,
          "melting_point_celsius": {
            "max": 0,
            "min": 0
          },
          "ph_range": {
            "max": 0,
            "min": 0
          },
          "sap_koh": 0,
          "sap_naoh": 0,
          "usage_rate_percent": {
            "leave_on_max": 0,
            "rinse_off_max": 0
          }
        },
        "storage": {
          "humidity_percent": {
            "max": 60
          },
          "special_instructions": "Store in a cool, dry place away from direct sunlight.",
          "temperature_celsius": {
            "max": 30,
            "min": 10
          }
        },
        "synonyms": [
          "Dandelion Whole Root"
        ]
      },
      {
        "applications": [
          "Soap",
          "Lotion",
          "Cream",
          "Balm",
          "Serum",
          "Scrub",
          "Baked Good",
          "Confection"
        ],
        "form_bypass": false,
        "function_tags": [
          "Exfoliant",
          "Flavor",
          "Bittering Agent"
        ],
        "item_name": "Dandelion Root Powder",
        "physical_form": "Powder",
        "safety_tags": [],
        "sds_hazards": [],
        "shelf_life_days": 730,
        "sourcing": {
          "certifications": [
            "Organic"
          ],
          "common_origins": [
            "Europe",
            "North America"
          ],
          "supply_risks": [
            "Seasonal availability"
          ],
          "sustainability_notes": "Widely available and considered a renewable resource"
        },
        "specifications": {
          "flash_point_celsius": 0,
          "iodine_value": 0,
          "melting_point_celsius": {
            "max": 0,
            "min": 0
          },
          "ph_range": {
            "max": 0,
            "min": 0
          },
          "sap_koh": 0,
          "sap_naoh": 0,
          "usage_rate_percent": {
            "leave_on_max": 0,
            "rinse_off_max": 0
          }
        },
        "storage": {
          "humidity_percent": {
            "max": 60
          },
          "special_instructions": "Store in a cool, dry place away from direct sunlight.",
          "temperature_celsius": {
            "max": 30,
            "min": 10
          }
        },
        "synonyms": [
          "Dandelion Root Ground"
        ]
      },
      {
        "applications": [
          "Lotion",
          "Cream",
          "Balm",
          "Serum",
          "Beverage",
          "Herbal Tincture"
        ],
        "form_bypass": false,
        "function_tags": [
          "Antioxidant",
          "Flavor"
        ],
        "item_name": "Dandelion Root Extract",
        "physical_form": "Liquid",
        "safety_tags": [],
        "sds_hazards": [],
        "shelf_life_days": 1825,
        "sourcing": {
          "certifications": [
            "Organic"
          ],
          "common_origins": [
            "Europe",
            "North America"
          ],
          "supply_risks": [
            "Seasonal availability"
          ],
          "sustainability_notes": "Widely available and considered a renewable resource"
        },
        "specifications": {
          "flash_point_celsius": 0,
          "iodine_value": 0,
          "melting_point_celsius": {
            "max": 0,
            "min": 0
          },
          "ph_range": {
            "max": 0,
            "min": 0
          },
          "sap_koh": 0,
          "sap_naoh": 0,
          "usage_rate_percent": {
            "leave_on_max": 0,
            "rinse_off_max": 0
          }
        },
        "storage": {
          "humidity_percent": {
            "max": 60
          },
          "special_instructions": "Store in a cool, dry place away from direct sunlight.",
          "temperature_celsius": {
            "max": 30,
            "min": 10
          }
        },
        "synonyms": [
          "Dandelion Root Tincture"
        ]
      }
    ],
    "origin": {
      "processing_methods": [
        "Dried",
        "Powdered",
        "Extracted"
      ],
      "regions": [
        "Europe",
        "North America",
        "Asia"
      ],
      "source_material": "Root"
    },
    "primary_functions": [
      "Flavor",
      "Bittering Agent",
      "Antioxidant"
    ],
    "regulatory_notes": [
      "Generally recognized as safe (GRAS)"
    ],
    "short_description": "Dandelion root is known for its medicinal and culinary uses.",
    "taxonomy": {
      "color_profile": [
        "Brown"
      ],
      "compatible_processes": [
        "Cold Process Soap",
        "Hot Process Soap",
        "Melt & Pour Soap",
        "Tea Infusion",
        "Tincture",
        "Extraction"
      ],
      "incompatible_processes": [],
      "scent_profile": [
        "Earthy"
      ],
      "texture_profile": [
        "Hard",
        "Powdery"
      ]
    }
  }
}