{
  "data_quality": {
    "caveats": [
      "SAP values, iodine value, and pH range are not specified due to lack of standardized data."
    ],
    "confidence": 0.9
  },
  "ingredient": {
    "botanical_name": "Canarium luzonicum",
    "cas_number": "8023-89-0",
    "category": "Essential Oils",
    "common_name": "Elemi Oil",
    "detailed_description": "Elemi oil is a clear to pale yellow essential oil derived from the gum resin of the Canarium luzonicum tree, native to the Philippines and neighboring islands. It is obtained through steam distillation of the resin. The oil is known for its fresh, citrus-like scent, with a spicy, peppery undertone. It is used in various applications due to its antiseptic, antibacterial, and anti-inflammatory properties.",
    "documentation": {
      "last_verified": "2023-12-01",
      "references": [
        {
          "notes": "Details on safe usage rates for fragrances, including elemi oil.",
          "title": "IFRA Standards",
          "url": "https://ifrafragrance.org/safe-use/standards"
        }
      ]
    },
    "inci_name": "Canarium Luzonicum (Elemi) Oil",
    "items": [
      {
        "applications": [
          "Cold Process Soap",
          "Hot Process Soap",
          "Lotion",
          "Cream",
          "Balm",
          "Serum",
          "Perfume",
          "Candle",
          "Wax Melt",
          "Lip Balm",
          "Skincare"
        ],
        "form_bypass": false,
        "function_tags": [
          "Fragrance",
          "Antioxidant",
          "Preservative"
        ],
        "item_name": "Elemi Oil",
        "physical_form": "Oil",
        "safety_tags": [
          "Dermal Limit 3%"
        ],
        "sds_hazards": [
          "Flammable"
        ],
        "shelf_life_days": 1095,
        "sourcing": {
          "certifications": [
            "Organic",
            "Wildcrafted"
          ],
          "common_origins": [
            "Philippines"
          ],
          "supply_risks": [
            "Seasonal Harvest",
            "Geopolitical instability"
          ],
          "sustainability_notes": "Sustainable harvesting practices are crucial to prevent overexploitation."
        },
        "specifications": {
          "flash_point_celsius": 48,
          "iodine_value": "unknown",
          "melting_point_celsius": {
            "max": "unknown",
            "min": "unknown"
          },
          "ph_range": {
            "max": "unknown",
            "min": "unknown"
          },
          "sap_koh": "unknown",
          "sap_naoh": "unknown",
          "usage_rate_percent": {
            "leave_on_max": 3,
            "rinse_off_max": "unknown"
          }
        },
        "storage": {
          "humidity_percent": {
            "max": 60
          },
          "special_instructions": "Store in a cool, dark place in an airtight container",
          "temperature_celsius": {
            "max": 25,
            "min": 5
          }
        },
        "synonyms": []
      }
    ],
    "origin": {
      "processing_methods": [
        "Steam Distilled"
      ],
      "regions": [
        "Philippines"
      ],
      "source_material": "Gum resin"
    },
    "primary_functions": [
      "Fragrance",
      "Antioxidant",
      "Preservative"
    ],
    "regulatory_notes": [
      "IFRA safe",
      "Food grade"
    ],
    "short_description": "A volatile oil extracted from the resin of the elemi tree.",
    "taxonomy": {
      "color_profile": [
        "Clear",
        "Pale Yellow"
      ],
      "compatible_processes": [
        "Cold Process Soap",
        "Hot Process Soap",
        "Emulsion",
        "Perfumery"
      ],
      "incompatible_processes": [],
      "scent_profile": [
        "Citrus",
        "Spicy",
        "Peppery"
      ],
      "texture_profile": [
        "Liquid"
      ]
    }
  }
}